
     Program PWSCF v.5.0.2 (svn rev. 9392) starts on 29Oct2015 at  7:59:56 

     This program is part of the open-source Quantum ESPRESSO suite
     for quantum simulation of materials; please cite
         "P. Giannozzi et al., J. Phys.:Condens. Matter 21 395502 (2009);
          URL http://www.quantum-espresso.org", 
     in publications or presentations arising from this work. More details at
     http://www.quantum-espresso.org/quote.php

     Parallel version (MPI & OpenMP), running on     144 processor cores
     Number of MPI processes:               144
     Threads/MPI process:                     1
     band groups division:  nbgrp     =       6
     R & G space division:  proc/nbgrp/npool/nimage =      24

     Current dimensions of program PWSCF are:
     Max number of different atomic species (ntypx) = 10
     Max number of k-points (npk) =  40000
     Max angular momentum in pseudopotentials (lmaxx) =  3
     Reading input from small.in

     IMPORTANT: XC functional enforced from input :
     Exchange-correlation      = PBE0 ( 6 4 8 4 0)
     EXX-fraction              =        0.25
     Any further DFT definition will be discarded
     Please, verify this is what you really want


     Subspace diagonalization in iterative solution of the eigenvalue problem:
     a serial algorithm will be used

     Found symmetry operation: I + (  0.0000  0.0000 -0.5000)
     This is a supercell, fractional translations are disabled
     EXX: grid of k+q point setup nkqs =          1
 
     Parallelization info
     --------------------
     sticks:   dense  smooth     PW     G-vecs:    dense   smooth      PW
     Min         489     489    131                25477    25477    3525
     Max         491     491    132                25478    25478    3529
     Sum       11761   11761   3149               611463   611463   84637
 


     bravais-lattice index     =            0
     lattice parameter (alat)  =       8.7671  a.u.
     unit-cell volume          =    3442.5370 (a.u.)^3
     number of atoms/cell      =           48
     number of atomic types    =            2
     number of electrons       =       384.00
     number of Kohn-Sham states=          192
     kinetic-energy cutoff     =     120.0000  Ry
     charge density cutoff     =     480.0000  Ry
     convergence threshold     =      1.0E+05
     mixing beta               =       0.7000
     number of iterations used =            8  plain     mixing
     Exchange-correlation      = PBE0 ( 6 4 8 4 0)
     EXX-fraction              =        0.25

     celldm(1)=   8.767100  celldm(2)=   0.000000  celldm(3)=   0.000000
     celldm(4)=   0.000000  celldm(5)=   0.000000  celldm(6)=   0.000000

     crystal axes: (cart. coord. in units of alat)
               a(1) = (   2.000000   0.000000   0.000000 )  
               a(2) = (   0.000000   2.000000   0.000000 )  
               a(3) = (   0.000000   0.000000   1.277176 )  

     reciprocal axes: (cart. coord. in units 2 pi/alat)
               b(1) = (  0.500000  0.000000  0.000000 )  
               b(2) = (  0.000000  0.500000  0.000000 )  
               b(3) = (  0.000000  0.000000  0.782977 )  


     PseudoPot. # 1 for Ti read from file:
     ./Ti.pbe.UPF
     MD5 check sum: 62dbf2fbf73916fd320f8d494e62af35
     Pseudo is Norm-conserving, Zval = 12.0
     Generated using "atomic" code by A. Dal Corso  (Quantum ESPRESSO distribution)
     Using radial grid of 1177 points,  2 beta functions with: 
                l(1) =   1
                l(2) =   2

     PseudoPot. # 2 for  O read from file:
     ./O.pbe.UPF
     MD5 check sum: da7678121fb76f7377a20687ab6aa51b
     Pseudo is Norm-conserving, Zval =  6.0
     Generated using "atomic" code by A. Dal Corso  (Quantum ESPRESSO distribution)
     Using radial grid of 1095 points,  1 beta functions with: 
                l(1) =   0

     atomic species   valence    mass     pseudopotential
        Ti            12.00    47.86700     Ti( 1.00)
        O              6.00    15.99940      O( 1.00)

      8 Sym. Ops., with inversion, found



   Cartesian axes

     site n.     atom                  positions (alat units)
         1           Ti  tau(   1) = (   0.0000000   0.0000000   0.0000000  )
         2           Ti  tau(   2) = (   0.5000000   0.5000000   0.3192940  )
         3           O   tau(   3) = (   0.3050877   0.3050877   0.0000000  )
         4           O   tau(   4) = (  -0.3050877  -0.3050877   0.0000000  )
         5           O   tau(   5) = (   0.8050877   0.1949123   0.3192940  )
         6           O   tau(   6) = (   0.1949123   0.8050877   0.3192940  )
         7           Ti  tau(   7) = (   0.0000000   0.0000000   0.6385880  )
         8           Ti  tau(   8) = (   0.5000000   0.5000000   0.9578820  )
         9           O   tau(   9) = (   0.3050877   0.3050877   0.6385880  )
        10           O   tau(  10) = (  -0.3050877  -0.3050877   0.6385880  )
        11           O   tau(  11) = (   0.8050877   0.1949123   0.9578820  )
        12           O   tau(  12) = (   0.1949123   0.8050877   0.9578820  )
        13           Ti  tau(  13) = (   0.0000000   1.0000000   0.0000000  )
        14           Ti  tau(  14) = (   0.5000000   1.5000000   0.3192940  )
        15           O   tau(  15) = (   0.3050877   1.3050877   0.0000000  )
        16           O   tau(  16) = (  -0.3050877   0.6949123   0.0000000  )
        17           O   tau(  17) = (   0.8050877   1.1949123   0.3192940  )
        18           O   tau(  18) = (   0.1949123   1.8050877   0.3192940  )
        19           Ti  tau(  19) = (   0.0000000   1.0000000   0.6385880  )
        20           Ti  tau(  20) = (   0.5000000   1.5000000   0.9578820  )
        21           O   tau(  21) = (   0.3050877   1.3050877   0.6385880  )
        22           O   tau(  22) = (  -0.3050877   0.6949123   0.6385880  )
        23           O   tau(  23) = (   0.8050877   1.1949123   0.9578820  )
        24           O   tau(  24) = (   0.1949123   1.8050877   0.9578820  )
        25           Ti  tau(  25) = (   1.0000000   0.0000000   0.0000000  )
        26           Ti  tau(  26) = (   1.5000000   0.5000000   0.3192940  )
        27           O   tau(  27) = (   1.3050877   0.3050877   0.0000000  )
        28           O   tau(  28) = (   0.6949123  -0.3050877   0.0000000  )
        29           O   tau(  29) = (   1.8050877   0.1949123   0.3192940  )
        30           O   tau(  30) = (   1.1949123   0.8050877   0.3192940  )
        31           Ti  tau(  31) = (   1.0000000   0.0000000   0.6385880  )
        32           Ti  tau(  32) = (   1.5000000   0.5000000   0.9578820  )
        33           O   tau(  33) = (   1.3050877   0.3050877   0.6385880  )
        34           O   tau(  34) = (   0.6949123  -0.3050877   0.6385880  )
        35           O   tau(  35) = (   1.8050877   0.1949123   0.9578820  )
        36           O   tau(  36) = (   1.1949123   0.8050877   0.9578820  )
        37           Ti  tau(  37) = (   1.0000000   1.0000000   0.0000000  )
        38           Ti  tau(  38) = (   1.5000000   1.5000000   0.3192940  )
        39           O   tau(  39) = (   1.3050877   1.3050877   0.0000000  )
        40           O   tau(  40) = (   0.6949123   0.6949123   0.0000000  )
        41           O   tau(  41) = (   1.8050877   1.1949123   0.3192940  )
        42           O   tau(  42) = (   1.1949123   1.8050877   0.3192940  )
        43           Ti  tau(  43) = (   1.0000000   1.0000000   0.6385880  )
        44           Ti  tau(  44) = (   1.5000000   1.5000000   0.9578820  )
        45           O   tau(  45) = (   1.3050877   1.3050877   0.6385880  )
        46           O   tau(  46) = (   0.6949123   0.6949123   0.6385880  )
        47           O   tau(  47) = (   1.8050877   1.1949123   0.9578820  )
        48           O   tau(  48) = (   1.1949123   1.8050877   0.9578820  )

     number of k points=     1
                       cart. coord. in units 2pi/alat
        k(    1) = (  -0.2500000  -0.2500000  -0.3914887), wk =   2.0000000

     Dense  grid:   611463 G-vectors     FFT dimensions: ( 125, 125,  80)

     Largest allocated arrays     est. size (Mb)     dimensions
        Kohn-Sham Wavefunctions         9.29 Mb     (   3172,  192)
        NL pseudopotentials             7.74 Mb     (   3172,  160)
        Each V/rho on FFT grid          0.95 Mb     (  62500)
        Each G-vector array             0.19 Mb     (  25478)
        G-vector shells                 0.08 Mb     (  10245)
     Largest temporary arrays     est. size (Mb)     dimensions
        Auxiliary wavefunctions        37.17 Mb     (   3172,  768)
        Each subspace H/S matrix        9.00 Mb     ( 768, 768)
        Each <psi_i|beta_j> matrix      0.47 Mb     (    160,  192)
        Arrays for rho mixing           7.63 Mb     (  62500,   8)
     writing wfc files to a dedicated directory

     Initial potential from superposition of free atoms

     starting charge  319.99995, renormalised to  384.00000
     Starting wfc are  272 atomic wfcs

     total cpu time spent up to now is        2.2 secs

     per-process dynamical memory:    53.8 Mb

     Self-consistent Calculation

     iteration #  1     ecut=   120.00 Ry     beta=0.70
     Davidson diagonalization with overlap
     ethr =  1.00E-02,  avg # of iterations =  2.0

     total cpu time spent up to now is        6.1 secs

     End of self-consistent calculation

          k =-0.2500-0.2500-0.3915 ( 76296 PWs)   bands (ev):

   -40.2931 -40.2931 -40.2930 -40.2930 -40.2930 -40.2930 -40.2930 -40.2930
   -40.2827 -40.2827 -40.2827 -40.2827 -40.2827 -40.2827 -40.2827 -40.2827
   -17.5914 -17.5914 -17.5914 -17.5914 -17.5914 -17.5914 -17.5914 -17.5914
   -17.5659 -17.5659 -17.5658 -17.5658 -17.5658 -17.5658 -17.5658 -17.5658
   -17.4291 -17.4291 -17.4291 -17.4291 -17.4291 -17.4291 -17.4290 -17.4290
   -17.3404 -17.3404 -17.3403 -17.3403 -17.3402 -17.3402 -17.3402 -17.3402
   -17.2457 -17.2457 -17.2457 -17.2457 -17.2456 -17.2456 -17.2456 -17.2456
   -17.1872 -17.1872 -17.1871 -17.1871 -17.1871 -17.1871 -17.1870 -17.1870
    -5.1331  -5.1331  -5.1329  -5.1329  -5.1329  -5.1329  -5.1329  -5.1329
    -4.4599  -4.4599  -4.4598  -4.4598  -4.4598  -4.4598  -4.4598  -4.4598
    -4.2773  -4.2773  -4.2773  -4.2773  -4.2772  -4.2772  -4.2772  -4.2772
    -4.1986  -4.1986  -4.1985  -4.1985  -4.1984  -4.1984  -4.1984  -4.1984
     6.9032   6.9032   6.9032   6.9032   6.9033   6.9033   6.9033   6.9033
     7.0477   7.0477   7.0478   7.0478   7.0478   7.0478   7.0479   7.0479
     7.2759   7.2759   7.2761   7.2761   7.2761   7.2761   7.2761   7.2761
     8.1033   8.1033   8.1033   8.1033   8.1033   8.1033   8.1033   8.1033
     8.5556   8.5556   8.5557   8.5557   8.5557   8.5557   8.5557   8.5557
     8.6519   8.6519   8.6520   8.6520   8.6520   8.6520   8.6520   8.6520
     9.0789   9.0789   9.0790   9.0790   9.0790   9.0790   9.0790   9.0790
     9.9564   9.9564   9.9564   9.9564   9.9564   9.9564   9.9564   9.9564
    10.2978  10.2978  10.2979  10.2979  10.2979  10.2979  10.2980  10.2980
    10.7970  10.7970  10.7971  10.7971  10.7972  10.7972  10.7973  10.7973
    11.0399  11.0399  11.0401  11.0401  11.0401  11.0401  11.0402  11.0402
    11.5647  11.5647  11.5648  11.5648  11.5648  11.5648  11.5649  11.5649
     EXX: now go back to refine exchange calculation
  -199.783685124066     

     Self-consistent Calculation

     iteration #  1     ecut=   120.00 Ry     beta=0.70
     Davidson diagonalization with overlap
     ethr =  1.00E-02,  avg # of iterations =  2.0

     total cpu time spent up to now is      200.4 secs

     End of self-consistent calculation

          k =-0.2500-0.2500-0.3915 ( 76296 PWs)   bands (ev):

   -60.4877 -60.4877 -60.4869 -60.4869 -60.4868 -60.4868 -60.4866 -60.4866
   -60.4842 -60.4842 -60.4837 -60.4837 -60.4836 -60.4836 -60.4833 -60.4833
   -34.8009 -34.8009 -34.8002 -34.8002 -34.8001 -34.8001 -34.8000 -34.8000
   -34.7932 -34.7932 -34.7927 -34.7927 -34.7926 -34.7926 -34.7923 -34.7923
   -34.6805 -34.6805 -34.6805 -34.6805 -34.6803 -34.6803 -34.6802 -34.6802
   -34.6482 -34.6482 -34.6482 -34.6482 -34.6481 -34.6481 -34.6480 -34.6480
   -34.6423 -34.6423 -34.6423 -34.6423 -34.6422 -34.6422 -34.6421 -34.6421
   -34.6139 -34.6139 -34.6139 -34.6139 -34.6138 -34.6138 -34.6136 -34.6136
   -14.3189 -14.3189 -14.3179 -14.3179 -14.3179 -14.3179 -14.3176 -14.3176
   -13.8872 -13.8872 -13.8870 -13.8870 -13.8870 -13.8870 -13.8869 -13.8869
   -13.7736 -13.7736 -13.7728 -13.7728 -13.7728 -13.7728 -13.7724 -13.7724
   -13.6740 -13.6740 -13.6737 -13.6737 -13.6733 -13.6733 -13.6733 -13.6733
    -0.6322  -0.6322  -0.6320  -0.6320  -0.6318  -0.6318  -0.6317  -0.6317
    -0.0078  -0.0078  -0.0077  -0.0077  -0.0075  -0.0075  -0.0074  -0.0074
     0.1424   0.1424   0.1424   0.1424   0.1426   0.1426   0.1427   0.1427
     0.3005   0.3005   0.3007   0.3007   0.3009   0.3009   0.3009   0.3009
     1.0992   1.0992   1.0993   1.0993   1.0995   1.0995   1.0995   1.0995
     1.7820   1.7820   1.7823   1.7823   1.7824   1.7824   1.7825   1.7825
     1.9266   1.9266   1.9270   1.9270   1.9271   1.9271   1.9276   1.9276
     2.0402   2.0402   2.0402   2.0402   2.0405   2.0405   2.0406   2.0406
     2.7127   2.7127   2.7128   2.7128   2.7130   2.7130   2.7132   2.7132
     3.2936   3.2936   3.2937   3.2937   3.2937   3.2937   3.2939   3.2939
     3.5457   3.5457   3.5459   3.5459   3.5459   3.5459   3.5460   3.5460
     4.2556   4.2556   4.2560   4.2560   4.2561   4.2561   4.2567   4.2567
  -199.783685124066       -206.853308007493       -218.565013558858     
     est. exchange err (dexx)  =       2.32104133 Ry

!    total energy              =   -2888.59081781 Ry
     Harris-Foulkes estimate   =   -2901.11237490 Ry
     estimated scf accuracy    <      15.15183123 Ry

     The total energy is the sum of the following terms:

     one-electron contribution =   -1273.48400674 Ry
     hartree contribution      =     747.27605669 Ry
     xc contribution           =    -362.53606736 Ry
     ewald contribution        =   -2097.41760163 Ry
     - averaged Fock potential =     206.85330801 Ry
     + Fock energy             =    -109.28250678 Ry

     WARNING: convergence NOT achieved after   1 iterations
 
     init_run     :      1.88s CPU      1.97s WALL (       1 calls)
     electrons    :    222.44s CPU    223.60s WALL (       1 calls)

     Called by init_run:
     wfcinit      :      1.22s CPU      1.25s WALL (       1 calls)
     potinit      :      0.25s CPU      0.26s WALL (       1 calls)

     Called by electrons:
     c_bands      :    148.20s CPU    148.90s WALL (       2 calls)
     sum_band     :      0.59s CPU      0.60s WALL (       2 calls)
     v_of_rho     :      0.20s CPU      0.20s WALL (       4 calls)
     mix_rho      :      0.00s CPU      0.00s WALL (       2 calls)

     Called by c_bands:
     init_us_2    :      0.02s CPU      0.03s WALL (       5 calls)
     cegterg      :    148.17s CPU    148.87s WALL (       2 calls)

     Called by *egterg:
     h_psi        :    146.03s CPU    146.60s WALL (       7 calls)
     g_psi        :      0.02s CPU      0.02s WALL (       4 calls)
     cdiaghg      :      0.74s CPU      0.74s WALL (       5 calls)

     Called by h_psi:
     add_vuspsi   :      0.30s CPU      0.30s WALL (       7 calls)

     General routines
     calbec       :      0.34s CPU      0.33s WALL (       7 calls)
     fft          :      0.11s CPU      0.11s WALL (      39 calls)
     ffts         :    106.24s CPU    106.56s WALL (   53248 calls)
     fftw         :      6.64s CPU      6.70s WALL (    4736 calls)
 
     Parallel routines
     fft_scatter  :     58.24s CPU     58.23s WALL (   58023 calls)
     EXX routines
     exx_grid     :      0.00s CPU      0.00s WALL (       1 calls)
     exxinit      :      4.51s CPU      4.67s WALL (       2 calls)
     vexx         :    141.56s CPU    142.10s WALL (       3 calls)
     exxen2       :     68.95s CPU     69.23s WALL (       3 calls)
 
     PWSCF        :  3m44.51s CPU     3m45.96s WALL

 
   This run was terminated on:   8: 3:42  29Oct2015            

=------------------------------------------------------------------------------=
   JOB DONE.
=------------------------------------------------------------------------------=
Application 17206452 resources: utime ~32347s, stime ~165s, Rss ~358320, inblocks ~597987, outblocks ~740404
